
                                 *****************
                                 * O   R   C   A *
                                 *****************

                                            #,                                       
                                            ###                                      
                                            ####                                     
                                            #####                                    
                                            ######                                   
                                           ########,                                 
                                     ,,################,,,,,                         
                               ,,#################################,,                 
                          ,,##########################################,,             
                       ,#########################################, ''#####,          
                    ,#############################################,,   '####,        
                  ,##################################################,,,,####,       
                ,###########''''           ''''###############################       
              ,#####''   ,,,,##########,,,,          '''####'''          '####       
            ,##' ,,,,###########################,,,                        '##       
           ' ,,###''''                  '''############,,,                           
         ,,##''                                '''############,,,,        ,,,,,,###''
      ,#''                                            '''#######################'''  
     '                                                          ''''####''''         
             ,#######,   #######,   ,#######,      ##                                
            ,#'     '#,  ##    ##  ,#'     '#,    #''#        ,####,   ,####,        
            ##       ##  ##   ,#'  ##            #'  '#       #'       #'  '#        
            ##       ##  #######   ##           ,######,      #####,   #    #        
            '#,     ,#'  ##    ##  '#,     ,#' ,#      #,     #,   #   #,  ,#        
             '#######'   ##     ##  '#######'  #'      '#     '####' # '####'        



                #########################################################
                #                        -***-                          #
                #          Department of theory and spectroscopy        #
                #                                                       #
                #                      Frank Neese                      #
                #                                                       #
                #     Directorship, Architecture, Infrastructure        #
                #                    SHARK, DRIVERS                     #
                #        Core code/Algorithms in most modules           #
                #                                                       #
                #        Max Planck Institute fuer Kohlenforschung      #
                #                Kaiser Wilhelm Platz 1                 #
                #                 D-45470 Muelheim/Ruhr                 #
                #                      Germany                          #
                #                                                       #
                #                  All rights reserved                  #
                #                        -***-                          #
                #########################################################


                         Program Version 6.0.0  -   RELEASE  -


 With contributions from (in alphabetic order):
   Daniel Aravena         : Magnetic Suceptibility
   Michael Atanasov       : Ab Initio Ligand Field Theory (pilot matlab implementation)
   Alexander A. Auer      : GIAO ZORA, VPT2 properties, NMR spectrum
   Ute Becker             : All parallelization in ORCA, NUMFREQ, NUMCALC
   Giovanni Bistoni       : ED, misc. LED, open-shell LED, HFLD
   Martin Brehm           : Molecular dynamics
   Dmytro Bykov           : pre 5.0 version of the SCF Hessian
   Marcos Casanova-Páez   : Triplet and SCS-CIS(D). UHF-(DLPNO)-IP/EA/STEOM-CCSD. UHF-CVS-IP/STEOM-CCSD
   Vijay G. Chilkuri      : MRCI spin determinant printing, contributions to CSF-ICE
   Pauline Colinet        : FMM embedding
   Dipayan Datta          : RHF DLPNO-CCSD density
   Achintya Kumar Dutta   : EOM-CC, STEOM-CC
   Nicolas Foglia         : Exact transition moments, OPA infrastructure, MCD improvements
   Dmitry Ganyushin       : Spin-Orbit,Spin-Spin,Magnetic field MRCI
   Miquel Garcia          : C-PCM and meta-GGA Hessian, CCSD/C-PCM, Gaussian charge scheme
   Tiago L. C. Gouveia    : GS-ROHF, GS-ROCIS
   Yang Guo               : DLPNO-NEVPT2, F12-NEVPT2, CIM, IAO-localization
   Andreas Hansen         : Spin unrestricted coupled pair/coupled cluster methods
   Ingolf Harden          : AUTO-CI MPn and infrastructure 
   Benjamin Helmich-Paris : MC-RPA, TRAH-(SCF,CASSCF), AVAS, COSX integrals, SCF dyn. polar.
   Lee Huntington         : MR-EOM, pCC
   Robert Izsak           : Overlap fitted RIJCOSX, COSX-SCS-MP3, EOM
   Riya Kayal             : Wick's Theorem for AUTO-CI, AUTO-CI UHF-CCSDT
   Emily Kempfer          : AUTO-CI, RHF CISDT and CCSDT
   Christian Kollmar      : KDIIS, OOCD, Brueckner-CCSD(T), CCSD density, CASPT2, CASPT2-K, improved NEVPT2
   Axel Koslowski         : Symmetry handling
   Simone Kossmann        : Meta GGA functionals, TD-DFT gradient, OOMP2, (MP2 Hessian; deprecated post 5.0)
   Lucas Lang             : DCDCAS
   Marvin Lechner         : AUTO-CI (C++ implementation), FIC-MRCC
   Spencer Leger          : CASSCF response
   Dagmar Lenk            : GEPOL surface, SMD, ORCA-2-JSON
   Dimitrios Liakos       : Extrapolation schemes; Compound Job, initial MDCI parallelization
   Dimitrios Manganas     : Further ROCIS development; embedding schemes. LFT, Crystal Embedding
   Dimitrios Pantazis     : SARC Basis sets
   Anastasios Papadopoulos: AUTO-CI, single reference methods and gradients
   Taras Petrenko         : pre 6.0 DFT Hessian and TD-DFT gradient, (ASA, deprecated), ECA, 1-Electron XAS/XES, NRVS
   Peter Pinski           : DLPNO-MP2, DLPNO-MP2 Gradient
   Christoph Reimann      : Effective Core Potentials
   Marius Retegan         : Local ZFS, SOC
   Christoph Riplinger    : Optimizer, TS searches, QM/MM, DLPNO-CCSD(T), (RO)-DLPNO pert. Triples
   Michael Roemelt        : Original ROCIS implementation
   Masaaki Saitow         : Open-shell DLPNO-CCSD energy and density
   Barbara Sandhoefer     : DKH picture change effects
   Kantharuban Sivalingam : CASSCF convergence/infrastructure, NEVPT2 and variants, FIC-MRCI
   Bernardo de Souza      : ESD, SOC TD-DFT
   Georgi Stoychev        : AutoAux, RI-MP2 NMR, DLPNO-MP2 response, X2C
   Van Anh Tran           : RI-MP2 g-tensors
   Willem Van den Heuvel  : Paramagnetic NMR
   Zikuan Wang            : NOTCH, Electric field optimization 
   Frank Wennmohs         : Technical directorship and infrastructure
   Hang Xu                : AUTO-CI-Response properties 


 We gratefully acknowledge several colleagues who have allowed us to
 interface, adapt or use parts of their codes:
   Stefan Grimme, W. Hujo, H. Kruse, P. Pracht,  : VdW corrections, initial TS optimization,
                  C. Bannwarth, S. Ehlert,         DFT functionals, gCP, sTDA/sTD-DF
                  L. Wittmann, M. Mueller
   Ed Valeev, F. Pavosevic, A. Kumar             : LibInt (2-el integral package), F12 methods
   Garnet Chan, S. Sharma, J. Yang, R. Olivares  : DMRG
   Ulf Ekstrom                                   : XCFun DFT Library
   Mihaly Kallay                                 : mrcc  (arbitrary order and MRCC methods)
   Frank Weinhold                                : gennbo (NPA and NBO analysis)
   Simon Mueller                                 : openCOSMO-RS
   Christopher J. Cramer and Donald G. Truhlar   : smd solvation model
   Lars Goerigk                                  : TD-DFT with DH, B97 family of functionals
   V. Asgeirsson, H. Jonsson                     : NEB implementation
   FAccTs GmbH                                   : IRC, NEB, NEB-TS, DLPNO-Multilevel, CI-OPT
                                                   MM, QMMM, 2- and 3-layer-ONIOM, Crystal-QMMM,
                                                   LR-CPCM, SF, NACMEs, symmetry and pop. for TD-DFT,
                                                   nearIR, NL-DFT gradient (VV10), updates on ESD,
                                                   ML-optimized integration grids, MBIS, APM,
                                                   GOAT, DOCKER, SOLVATOR, interface openCOSMO-RS
   S Lehtola, MJT Oliveira, MAL Marques          : LibXC Library
   Liviu Ungur et al                             : ANISO software


 Your calculation uses the libint2 library for the computation of 2-el integrals
 For citations please refer to: http://libint.valeyev.net

 Your ORCA version has been built with support for libXC version: 6.2.2
 For citations please refer to: https://libxc.gitlab.io

 This ORCA versions uses:
   CBLAS   interface :  Fast vector & matrix operations
   LAPACKE interface :  Fast linear algebra routines
   SCALAPACK package :  Parallel linear algebra routines
   Shared memory     :  Shared parallel matrices
   BLAS/LAPACK       :  OpenBLAS 0.3.27  USE64BITINT DYNAMIC_ARCH NO_AFFINITY SkylakeX SINGLE_THREADED
        Core in use  :  SkylakeX
   Copyright (c) 2011-2014, The OpenBLAS Project




***************************************
The coordinates will be read from file: /misc/home6/u2766/task/w1/particle-Cl.xyz
***************************************


Your calculation utilizes the atom-pairwise dispersion correction
with the zero-damping scheme (D30)


XCFun DFT library Copyright 2009-2010 Ulf Ekstrom and contributors.
See http://admol.org/xcfun for more information.
This is free software; see the source code for copying conditions.
There is ABSOLUTELY NO WARRANTY; not even for MERCHANTABILITY or FITNESS FOR A PARTICULAR PURPOSE.
For details see the documentation.
Scientific users of this library should cite U. Ekstrom, L. Visscher, R. Bast, A. J. Thorvaldsen and K. Ruud;
J.Chem.Theor.Comp. 2010, DOI: 10.1021/ct100117s
XCFun Version 0.99 

Warning: RI is on but no J-basis has been assigned. Assigning Def2/J (nothing to worry about!)
================================================================================

----- Orbital basis set information -----
Your calculation utilizes the basis: def2-TZVP
   F. Weigend and R. Ahlrichs, Phys. Chem. Chem. Phys. 7, 3297 (2005).

----- AuxJ basis set information -----
Your calculation utilizes the auxiliary basis: def2/J
   F. Weigend, Phys. Chem. Chem. Phys. 8, 1057 (2006).

================================================================================
                                        WARNINGS
                       Please study these warnings very carefully!
================================================================================


WARNING: Geometry Optimization
  ===> : Switching off AutoStart
         For restart on a previous wavefunction, please use MOREAD

================================================================================
                                       INPUT FILE
================================================================================
NAME = p_opt-particle-Cl.inp
|  1> %pal nprocs=36
|  2>    end
|  3> ! Opt freq WB97X-D3 def2-TZVP
|  4> 
|  5> %geom
|  6> MaxIter 1000
|  7> end
|  8> 
|  9> * xyzfile -1 1 /misc/home6/u2766/task/w1/particle-Cl.xyz **                         ****END OF INPUT****
================================================================================

                       *****************************
                       * Geometry Optimization Run *
                       *****************************

Geometry optimization settings:
Update method            Update   .... BFGS
Choice of coordinates    CoordSys .... (2022) Redundant Internals
Initial Hessian          InHess   .... Almloef's Model
Max. no of cycles        MaxIter  .... 1000

Convergence Tolerances:
Energy Change            TolE     ....  5.0000e-06 Eh
Max. Gradient            TolMAXG  ....  3.0000e-04 Eh/bohr
RMS Gradient             TolRMSG  ....  1.0000e-04 Eh/bohr
Max. Displacement        TolMAXD  ....  4.0000e-03 bohr
RMS Displacement         TolRMSD  ....  2.0000e-03 bohr
Strict Convergence                .... False

------------------------------------------------------------------------------
                        ORCA OPTIMIZATION COORDINATE SETUP
------------------------------------------------------------------------------

The optimization will be done in redundant internal coordinates (2022)
Making redundant internal coordinates   ...  (2022 redundants) done
Evaluating the initial hessian          ...  (Almloef) done
Evaluating the coordinates              ...  done
Calculating the B-matrix                .... done
Calculating the G-matrix                .... done
Diagonalizing the G-matrix              .... done
Small eigenvalue found = 2.212e-02
The first mode is                       ....   51
The number of degrees of freedom        ....   66

    -----------------------------------------------------------------
                    Redundant Internal Coordinates


    -----------------------------------------------------------------
         Definition                    Initial Value    Approx d2E/dq
    -----------------------------------------------------------------
      1. B(C   1,C   0)                  1.5272         0.377478   
      2. B(H   2,C   0)                  1.1140         0.329656   
      3. B(C   3,C   0)                  1.5379         0.362910   
      4. B(H   4,C   0)                  1.1120         0.332106   
      5. B(C   5,C   3)                  1.5304         0.373026   
      6. B(H   6,C   3)                  1.1091         0.335724   
      7. B(H   7,C   3)                  1.1117         0.332502   
      8. B(C   8,C   1)                  1.5382         0.362452   
      9. B(H   9,C   1)                  1.1122         0.331911   
     10. B(H  10,C   1)                  1.1106         0.333814   
     11. B(C  11,C   5)                  1.5399         0.360192   
     12. B(H  12,C   5)                  1.1125         0.331572   
     13. B(H  13,C   5)                  1.1138         0.329898   
     14. B(C  14,C  11)                  1.5485         0.349086   
     15. B(C  14,C   8)                  1.5359         0.365499   
     16. B(H  15,C   8)                  1.1095         0.335206   
     17. B(H  16,C   8)                  1.1111         0.333293   
     18. B(O  17,C  11)                  1.3871         0.565590   
     19. B(H  18,C  11)                  1.1134         0.330451   
     20. B(H  19,C  14)                  1.1091         0.335710   
     21. B(C  21,O  20)                  1.3462         0.657234   
     22. B(C  21,O  17)                  1.3530         0.641188   
     23. B(O  22,C  21)                  1.2227         1.034771   
     24. B(Cl 23,C  14)                  1.7981         0.313095   
     25. A(C   1,C   0,C   3)          115.4445         0.362201   
     26. A(H   2,C   0,H   4)          106.4622         0.283253   
     27. A(C   1,C   0,H   4)          106.7422         0.320592   
     28. A(C   3,C   0,H   4)          108.3171         0.318538   
     29. A(C   1,C   0,H   2)          109.8527         0.320204   
     30. A(H   2,C   0,C   3)          109.6012         0.318154   
     31. A(C   0,C   1,H   9)          106.7917         0.320561   
     32. A(C   0,C   1,C   8)          116.5375         0.362123   
     33. A(C   8,C   1,H  10)          109.7619         0.318739   
     34. A(C   0,C   1,H  10)          109.0081         0.320861   
     35. A(C   8,C   1,H   9)          107.5614         0.318442   
     36. A(H   9,C   1,H  10)          106.7043         0.283779   
     37. A(C   0,C   3,C   5)          111.4569         0.361468   
     38. A(H   6,C   3,H   7)          107.6133         0.284109   
     39. A(C   0,C   3,H   7)          105.1585         0.318600   
     40. A(C   5,C   3,H   6)          113.0993         0.320538   
     41. A(C   0,C   3,H   6)          113.1256         0.319102   
     42. A(C   5,C   3,H   7)          105.6993         0.320033   
     43. A(H  12,C   5,H  13)          105.0371         0.283215   
     44. A(C   3,C   5,H  13)          106.7227         0.319622   
     45. A(C  11,C   5,H  12)          106.1913         0.318064   
     46. A(C   3,C   5,H  12)          110.0017         0.319887   
     47. A(C  11,C   5,H  13)          109.7677         0.317802   
     48. A(C   3,C   5,C  11)          118.3700         0.361005   
     49. A(C   1,C   8,H  16)          105.6361         0.318658   
     50. A(C  14,C   8,H  15)          109.6692         0.319392   
     51. A(C   1,C   8,H  15)          111.1357         0.318956   
     52. A(C   1,C   8,C  14)          115.1510         0.360137   
     53. A(H  15,C   8,H  16)          107.9735         0.284146   
     54. A(C  14,C   8,H  16)          106.8822         0.319093   
     55. A(C   5,C  11,C  14)          118.3323         0.356952   
     56. A(O  17,C  11,H  18)          108.0815         0.340415   
     57. A(C  14,C  11,H  18)          106.2712         0.316272   
     58. A(C   5,C  11,H  18)          107.3562         0.317889   
     59. A(C  14,C  11,O  17)          110.0714         0.383322   
     60. A(C   5,C  11,O  17)          106.3463         0.385416   
     61. A(C   8,C  14,C  11)          114.6584         0.357841   
     62. A(H  19,C  14,Cl 23)          102.5082         0.324374   
     63. A(C  11,C  14,Cl 23)          112.3208         0.363561   
     64. A(C   8,C  14,Cl 23)          113.0106         0.366431   
     65. A(C  11,C  14,H  19)          105.9380         0.317086   
     66. A(C   8,C  14,H  19)          107.2431         0.319470   
     67. A(C  11,O  17,C  21)          124.4325         0.423965   
     68. A(O  20,C  21,O  22)          119.5019         0.475196   
     69. A(O  17,C  21,O  22)          119.4231         0.473041   
     70. A(O  17,C  21,O  20)          121.0372         0.435546   
     71. D(H   9,C   1,C   0,C   3)   -178.3302         0.011364   
     72. D(C   8,C   1,C   0,C   3)    -58.1328         0.011364   
     73. D(C   8,C   1,C   0,H   2)     66.3925         0.011364   
     74. D(H   9,C   1,C   0,H   4)     61.2344         0.011364   
     75. D(H   9,C   1,C   0,H   2)    -53.8049         0.011364   
     76. D(C   8,C   1,C   0,H   4)   -178.5682         0.011364   
     77. D(C   5,C   3,C   0,C   1)     76.2762         0.010555   
     78. D(H   6,C   3,C   0,C   1)    -52.4962         0.010555   
     79. D(C   5,C   3,C   0,H   2)    -48.3799         0.010555   
     80. D(H   6,C   3,C   0,H   2)   -177.1523         0.010555   
     81. D(H   6,C   3,C   0,H   4)     67.0777         0.010555   
     82. D(C   5,C   3,C   0,H   4)   -164.1499         0.010555   
     83. D(C  11,C   5,C   3,H   6)     47.5025         0.011113   
     84. D(C  11,C   5,C   3,H   7)    164.9927         0.011113   
     85. D(C  11,C   5,C   3,C   0)    -81.2839         0.011113   
     86. D(H  12,C   5,C   3,H   7)     42.7288         0.011113   
     87. D(H  12,C   5,C   3,H   6)    -74.7614         0.011113   
     88. D(H  12,C   5,C   3,C   0)    156.4522         0.011113   
     89. D(H  15,C   8,C   1,H  10)    178.0160         0.010530   
     90. D(H  15,C   8,C   1,H   9)     62.2911         0.010530   
     91. D(H  15,C   8,C   1,C   0)    -57.4941         0.010530   
     92. D(C  14,C   8,C   1,H   9)   -172.2464         0.010530   
     93. D(C  14,C   8,C   1,C   0)     67.9685         0.010530   
     94. D(C  14,C   8,C   1,H  10)    -56.5214         0.010530   
     95. D(O  17,C  11,C   5,H  13)     29.3374         0.010408   
     96. D(O  17,C  11,C   5,H  12)    -83.7060         0.010408   
     97. D(O  17,C  11,C   5,C   3)    152.1278         0.010408   
     98. D(C  14,C  11,C   5,H  13)    -95.0273         0.010408   
     99. D(C  14,C  11,C   5,H  12)    151.9293         0.010408   
    100. D(C  14,C  11,C   5,C   3)     27.7631         0.010408   
    101. D(C  11,C  14,C   8,C   1)    -82.4535         0.010696   
    102. D(H  19,C  14,C  11,H  18)    -75.5719         0.009822   
    103. D(H  19,C  14,C  11,O  17)     41.2277         0.009822   
    104. D(H  19,C  14,C  11,C   5)    163.7361         0.009822   
    105. D(C   8,C  14,C  11,H  18)    166.3738         0.009822   
    106. D(C   8,C  14,C  11,O  17)    -76.8265         0.009822   
    107. D(C   8,C  14,C  11,C   5)     45.6818         0.009822   
    108. D(H  19,C  14,C   8,H  16)     43.2547         0.010696   
    109. D(H  19,C  14,C   8,H  15)    -73.5490         0.010696   
    110. D(H  19,C  14,C   8,C   1)    160.2333         0.010696   
    111. D(C  11,C  14,C   8,H  16)    160.5679         0.010696   
    112. D(C  11,C  14,C   8,H  15)     43.7642         0.010696   
    113. D(C  21,O  17,C  11,H  18)     43.7559         0.025577   
    114. D(C  21,O  17,C  11,C  14)    -71.9082         0.025577   
    115. D(C  21,O  17,C  11,C   5)    158.7666         0.025577   
    116. D(O  22,C  21,O  17,C  11)    175.7159         0.030317   
    117. D(O  20,C  21,O  17,C  11)     -6.5318         0.030317   
    -----------------------------------------------------------------

Number of atoms                         .... 24
Number of degrees of freedom            .... 117


         *************************************************************
         *                GEOMETRY OPTIMIZATION CYCLE   1            *
         *************************************************************
---------------------------------
CARTESIAN COORDINATES (ANGSTROEM)
---------------------------------
  C     -2.673550   -0.143000   -0.093700
  C     -1.877530   -1.434770   -0.266710
  H     -3.057040    0.200290   -1.081720
  C     -1.923030    1.008160    0.596690
  H     -3.565710   -0.396240    0.519920
  C     -0.924400    1.674290   -0.352590
  H     -1.472100    0.714480    1.566470
  H     -2.698480    1.776940    0.805360
  C     -0.564750   -1.331810   -1.061790
  H     -2.539070   -2.150530   -0.802450
  H     -1.677120   -1.872950    0.733960
  C      0.447420    1.005590   -0.558350
  H     -0.715410    2.714010   -0.016600
  H     -1.440080    1.785750   -1.333560
  C      0.551540   -0.528750   -0.377590
  H     -0.744210   -0.929150   -2.079950
  H     -0.195010   -2.374380   -1.165670
  O      0.870120    1.364920   -1.829670
  H      1.149960    1.454990    0.179290
  H      1.508910   -0.826970   -0.851500
  O      3.158660    1.076990   -1.381730
  C      2.158110    1.340090   -2.243120
  O      2.419940    1.600800   -3.408620
  Cl     0.804090   -0.998490    1.339570

----------------------------
CARTESIAN COORDINATES (A.U.)
----------------------------
  NO LB      ZA    FRAG     MASS         X           Y           Z
   0 C     6.0000    0    12.011   -5.052277   -0.270231   -0.177067
   1 C     6.0000    0    12.011   -3.548018   -2.711322   -0.504009
   2 H     1.0000    0     1.008   -5.776968    0.378493   -2.044155
   3 C     6.0000    0    12.011   -3.634000    1.905146    1.127581
   4 H     1.0000    0     1.008   -6.738215   -0.748785    0.982506
   5 C     6.0000    0    12.011   -1.746863    3.163950   -0.666299
   6 H     1.0000    0     1.008   -2.781866    1.350172    2.960199
   7 H     1.0000    0     1.008   -5.099388    3.357930    1.521910
   8 C     6.0000    0    12.011   -1.067223   -2.516756   -2.006492
   9 H     1.0000    0     1.008   -4.798147   -4.063913   -1.516411
  10 H     1.0000    0     1.008   -3.169297   -3.539363    1.386983
  11 C     6.0000    0    12.011    0.845501    1.900290   -1.055129
  12 H     1.0000    0     1.008   -1.351929    5.128736   -0.031369
  13 H     1.0000    0     1.008   -2.721357    3.374578   -2.520063
  14 C     6.0000    0    12.011    1.042260   -0.999193   -0.713542
  15 H     1.0000    0     1.008   -1.406353   -1.755839   -3.930536
  16 H     1.0000    0     1.008   -0.368515   -4.486928   -2.202797
  17 O     8.0000    0    15.999    1.644289    2.579325   -3.457575
  18 H     1.0000    0     1.008    2.173109    2.749533    0.338809
  19 H     1.0000    0     1.008    2.851427   -1.562747   -1.609102
  20 O     8.0000    0    15.999    5.969002    2.035216   -2.611091
  21 C     6.0000    0    12.011    4.078237    2.532403   -4.238882
  22 O     8.0000    0    15.999    4.573024    3.025074   -6.441358
  23 Cl   17.0000    0    35.453    1.519510   -1.886873    2.531420

--------------------------------
INTERNAL COORDINATES (ANGSTROEM)
--------------------------------
 C      0   0   0     0.000000000000     0.00000000     0.00000000
 C      1   0   0     1.527170597347     0.00000000     0.00000000
 H      1   2   0     1.114044938322   109.85272629     0.00000000
 C      1   2   3     1.537884250553   115.44449711   235.47470016
 H      1   2   3     1.112029436481   106.74224741   115.03930368
 C      4   1   2     1.530399807959   111.45687233    76.27619676
 H      4   1   2     1.109080274687   113.12560278   307.50381526
 H      4   1   2     1.111705248616   105.15845990   190.33663400
 C      2   1   3     1.538227647782   116.53750499    66.39248909
 H      2   1   3     1.112189236057   106.79173055   306.19514157
 H      2   1   3     1.110633301049   109.00812622   191.26571752
 C      6   4   1     1.539930836109   118.37001882   278.71613987
 H      6   4   1     1.112467428107   110.00170711   156.45224621
 H      6   4   1     1.113845292175   106.72265554    43.02073668
 C      9   2   1     1.535948686545   115.15095933    67.96847381
 H      9   2   1     1.109500226589   111.13568150   302.50594063
 H      9   2   1     1.111058471414   105.63609240   185.65030493
 O     12   6   4     1.387100530351   106.34628921   152.12782602
 H     12   6   4     1.113389231671   107.35622023   267.62974540
 H     15   9   2     1.109091147472   107.24310112   160.23332121
 O     18  12   6     2.349674288088    95.18298464   155.55215848
 C     21  18  12     1.346222360756    29.56214789   174.59419948
 O     22  21  18     1.222667126817   119.50194411   177.75060438
 Cl    15   9   2     1.798075536706   113.01055095    48.01173890

---------------------------
INTERNAL COORDINATES (A.U.)
---------------------------
 C      0   0   0     0.000000000000     0.00000000     0.00000000
 C      1   0   0     2.885934188762     0.00000000     0.00000000
 H      1   2   0     2.105239834309   109.85272629     0.00000000
 C      1   2   3     2.906180059217   115.44449711   235.47470016
 H      1   2   3     2.101431087808   106.74224741   115.03930368
 C      4   1   2     2.892036512448   111.45687233    76.27619676
 H      4   1   2     2.095857979693   113.12560278   307.50381526
 H      4   1   2     2.100818461527   105.15845990   190.33663400
 C      2   1   3     2.906828985933   116.53750499    66.39248909
 H      2   1   3     2.101733065242   106.79173055   306.19514157
 H      2   1   3     2.098792774196   109.00812622   191.26571752
 C      6   4   1     2.910047545427   118.37001882   278.71613987
 H      6   4   1     2.102258772031   110.00170711   156.45224621
 H      6   4   1     2.104862557768   106.72265554    43.02073668
 C      9   2   1     2.902522373327   115.15095933    67.96847381
 H      9   2   1     2.096651573776   111.13568150   302.50594063
 H      9   2   1     2.099596229745   105.63609240   185.65030493
 O     12   6   4     2.621240122580   106.34628921   152.12782602
 H     12   6   4     2.104000728314   107.35622023   267.62974540
 H     15   9   2     2.095878526278   107.24310112   160.23332121
 O     18  12   6     4.440240908402    95.18298464   155.55215848
 C     21  18  12     2.543991577190    29.56214789   174.59419948
 O     22  21  18     2.310506022633   119.50194411   177.75060438
 Cl    15   9   2     3.397870332478   113.01055095    48.01173890

---------------------
BASIS SET INFORMATION
---------------------
There are 4 groups of distinct atoms

 Group   1 Type C   : 11s6p2d1f contracted to 5s3p2d1f pattern {62111/411/11/1}
 Group   2 Type H   : 5s1p contracted to 3s1p pattern {311/1}
 Group   3 Type O   : 11s6p2d1f contracted to 5s3p2d1f pattern {62111/411/11/1}
 Group   4 Type Cl  : 14s9p3d1f contracted to 5s5p2d1f pattern {73211/51111/21/1}

Atom   0C    basis set group =>   1
Atom   1C    basis set group =>   1
Atom   2H    basis set group =>   2
Atom   3C    basis set group =>   1
Atom   4H    basis set group =>   2
Atom   5C    basis set group =>   1
Atom   6H    basis set group =>   2
Atom   7H    basis set group =>   2
Atom   8C    basis set group =>   1
Atom   9H    basis set group =>   2
Atom  10H    basis set group =>   2
Atom  11C    basis set group =>   1
Atom  12H    basis set group =>   2
Atom  13H    basis set group =>   2
Atom  14C    basis set group =>   1
Atom  15H    basis set group =>   2
Atom  16H    basis set group =>   2
Atom  17O    basis set group =>   3
Atom  18H    basis set group =>   2
Atom  19H    basis set group =>   2
Atom  20O    basis set group =>   3
Atom  21C    basis set group =>   1
Atom  22O    basis set group =>   3
Atom  23Cl   basis set group =>   4
---------------------------------
AUXILIARY/J BASIS SET INFORMATION
---------------------------------
There are 4 groups of distinct atoms

 Group   1 Type C   : 12s5p4d2f1g contracted to 6s4p3d1f1g pattern {711111/2111/211/2/1}
 Group   2 Type H   : 5s2p1d contracted to 3s1p1d pattern {311/2/1}
 Group   3 Type O   : 12s5p4d2f1g contracted to 6s4p3d1f1g pattern {711111/2111/211/2/1}
 Group   4 Type Cl  : 14s5p5d2f1g contracted to 8s4p3d1f1g pattern {71111111/2111/311/2/1}

Atom   0C    basis set group =>   1
Atom   1C    basis set group =>   1
Atom   2H    basis set group =>   2
Atom   3C    basis set group =>   1
Atom   4H    basis set group =>   2
Atom   5C    basis set group =>   1
Atom   6H    basis set group =>   2
Atom   7H    basis set group =>   2
Atom   8C    basis set group =>   1
Atom   9H    basis set group =>   2
Atom  10H    basis set group =>   2
Atom  11C    basis set group =>   1
Atom  12H    basis set group =>   2
Atom  13H    basis set group =>   2
Atom  14C    basis set group =>   1
Atom  15H    basis set group =>   2
Atom  16H    basis set group =>   2
Atom  17O    basis set group =>   3
Atom  18H    basis set group =>   2
Atom  19H    basis set group =>   2
Atom  20O    basis set group =>   3
Atom  21C    basis set group =>   1
Atom  22O    basis set group =>   3
Atom  23Cl   basis set group =>   4


           ************************************************************
           *        Program running with 36 parallel MPI-processes    *
           *              working on a common directory               *
           ************************************************************
------------------------------------------------------------------------------
                             ORCA STARTUP CALCULATIONS
                           -- RI-GTO INTEGRALS CHOSEN --
------------------------------------------------------------------------------
------------------------------------------------------------------------------
                   ___                                                        
                  /   \      - P O W E R E D   B Y -                         
                 /     \                                                     
                 |  |  |   _    _      __       _____    __    __             
                 |  |  |  | |  | |    /  \     |  _  \  |  |  /  |          
                  \  \/   | |  | |   /    \    | | | |  |  | /  /          
                 / \  \   | |__| |  /  /\  \   | |_| |  |  |/  /          
                |  |  |   |  __  | /  /__\  \  |    /   |      \           
                |  |  |   | |  | | |   __   |  |    \   |  |\   \          
                \     /   | |  | | |  |  |  |  | |\  \  |  | \   \       
                 \___/    |_|  |_| |__|  |__|  |_| \__\ |__|  \__/        
                                                                              
                      - O R C A' S   B I G   F R I E N D -                    
                                      &                                       
                       - I N T E G R A L  F E E D E R -                       
                                                                              
 v1 FN, 2020, v2 2021, v3 2022-2024                                           
------------------------------------------------------------------------------


----------------------
SHARK INTEGRAL PACKAGE
----------------------

Number of atoms                             ...     24
Number of basis functions                   ...    450
Number of shells                            ...    182
Maximum angular momentum                    ...      3
Integral batch strategy                     ... SHARK/LIBINT Hybrid
RI-J (if used) integral strategy            ... SPLIT-RIJ (Revised 2003 algorithm where possible)
Printlevel                                  ...      1
Contraction scheme used                     ... SEGMENTED contraction
Prescreening option                         ... SCHWARTZ
   Thresh                                   ... 2.500e-11
   Tcut                                     ... 2.500e-12
   Tpresel                                  ... 2.500e-12 
Coulomb Range Separation                    ... NOT USED
Exchange Range Separation                   ... Long Range
   Mu parameter                             ... 2.500e-01
   Scaling (regular/separated)              ... 1.957e-01 8.043e-01
Multipole approximations                    ... NOT USED
Finite Nucleus Model                        ... NOT USED
CABS basis                                  ... NOT available
Auxiliary Coulomb fitting basis             ... AVAILABLE
   # of basis functions in Aux-J            ...    722
   # of shells in Aux-J                     ...    242
   Maximum angular momentum in Aux-J        ...      4
Auxiliary J/K fitting basis                 ... NOT available
Auxiliary Correlation fitting basis         ... NOT available
Auxiliary 'external' fitting basis          ... NOT available

Checking pre-screening integrals            ... done (  0.0 sec) Dimension = 182
Check shell pair data                       ... done (  0.0 sec)
Shell pair information
Shell pair cut-off parameter TPreSel        ...   2.5e-12
Total number of shell pairs                 ...     16653
Shell pairs after pre-screening             ...     14215
Total number of primitive shell pairs       ...     51354
Primitive shell pairs kept                  ...     31091
          la=0 lb=0:   3874 shell pairs
          la=1 lb=0:   4144 shell pairs
          la=1 lb=1:   1153 shell pairs
          la=2 lb=0:   1927 shell pairs
          la=2 lb=1:   1060 shell pairs
          la=2 lb=2:    265 shell pairs
          la=3 lb=0:    963 shell pairs
          la=3 lb=1:    519 shell pairs
          la=3 lb=2:    243 shell pairs
          la=3 lb=3:     67 shell pairs

Calculating one electron integrals          ... done (  0.0 sec)
Calculating RI/J V-Matrix + Cholesky decomp.... done (  0.0 sec)
Calculating Nuclear repulsion               ... done (  0.0 sec) ENN=    853.897344034405 Eh

Diagonalization of the overlap matrix:
Smallest eigenvalue                        ... 5.793e-05
Time for diagonalization                   ...    0.022 sec
Threshold for overlap eigenvalues          ... 1.000e-07
Number of eigenvalues below threshold      ... 0
Time for construction of square roots      ...    0.018 sec
Total time needed                          ...    0.073 sec

-------------------
DFT GRID GENERATION
-------------------

General Integration Accuracy     IntAcc      ... 4.388
Radial Grid Type                 RadialGrid  ... OptM3 with GC (2021)
Angular Grid (max. ang.)         AngularGrid ... 4 (Lebedev-302)
Angular grid pruning method      GridPruning ... 4 (adaptive)
Weight generation scheme         WeightScheme... mBecke (2022)
Basis function cutoff            BFCut       ... 1.0000e-11
Integration weight cutoff        WCut        ... 1.0000e-14
Partially contracted basis set               ... off
Rotationally invariant grid construction     ... off
Angular grids for H and He will be reduced by one unit

Total number of grid points                  ...   111305
Total number of batches                      ...     1752
Average number of points per batch           ...       63
Average number of grid points per atom       ...     4638

--------------------
COSX GRID GENERATION
--------------------

GRIDX 1
-------
General Integration Accuracy     IntAcc      ... 3.816
Radial Grid Type                 RadialGrid  ... OptM3 with GC (2021)
Angular Grid (max. ang.)         AngularGrid ... 1 (Lebedev-50)
Angular grid pruning method      GridPruning ... 4 (adaptive)
Weight generation scheme         WeightScheme... mBecke (2022)
Basis function cutoff            BFCut       ... 1.0000e-11
Integration weight cutoff        WCut        ... 1.0000e-14
Partially contracted basis set               ... on
Rotationally invariant grid construction     ... off
Angular grids for H and He will be reduced by one unit

Total number of grid points                  ...    15190
Total number of batches                      ...      135
Average number of points per batch           ...      112
Average number of grid points per atom       ...      633
UseSFitting                                  ... on

GRIDX 2
-------
General Integration Accuracy     IntAcc      ... 4.020
Radial Grid Type                 RadialGrid  ... OptM3 with GC (2021)
Angular Grid (max. ang.)         AngularGrid ... 2 (Lebedev-110)
Angular grid pruning method      GridPruning ... 4 (adaptive)
Weight generation scheme         WeightScheme... mBecke (2022)
Basis function cutoff            BFCut       ... 1.0000e-11
Integration weight cutoff        WCut        ... 1.0000e-14
Partially contracted basis set               ... on
Rotationally invariant grid construction     ... off
Angular grids for H and He will be reduced by one unit

Total number of grid points                  ...    30314
Total number of batches                      ...      248
Average number of points per batch           ...      122
Average number of grid points per atom       ...     1263
UseSFitting                                  ... on

GRIDX 3
-------
General Integration Accuracy     IntAcc      ... 4.338
Radial Grid Type                 RadialGrid  ... OptM3 with GC (2021)
Angular Grid (max. ang.)         AngularGrid ... 3 (Lebedev-194)
Angular grid pruning method      GridPruning ... 4 (adaptive)
Weight generation scheme         WeightScheme... mBecke (2022)
Basis function cutoff            BFCut       ... 1.0000e-11
Integration weight cutoff        WCut        ... 1.0000e-14
Partially contracted basis set               ... on
Rotationally invariant grid construction     ... off
Angular grids for H and He will be reduced by one unit

Total number of grid points                  ...    66917
Total number of batches                      ...      537
Average number of points per batch           ...      124
Average number of grid points per atom       ...     2788
UseSFitting                                  ... on
Initializing property integral containers    ... done (  0.0 sec)

SHARK setup successfully completed in   1.6 seconds

Maximum memory used throughout the entire STARTUP-calculation: 39.5 MB


           ************************************************************
           *        Program running with 36 parallel MPI-processes    *
           *              working on a common directory               *
           ************************************************************
-------------------------------------------------------------------------------
                                 ORCA GUESS
                   Start orbitals & Density for SCF / CASSCF
-------------------------------------------------------------------------------

------------
SCF SETTINGS
------------
Hamiltonian:
 Density Functional     Method          .... DFT(GTOs)
 Exchange Functional    Exchange        .... WB97X-D3
 Correlation Functional Correlation     .... WB97X-D3
 Gradients option       PostSCFGGA      .... off
 Hybrid DFT is turned on
   Fraction HF Exchange ScalHFX         ....  0.195728
   Scaling of DF-GGA-X  ScalDFX         ....  0.000000
   Scaling of DF-GGA-C  ScalDFC         ....  1.000000
   Scaling of DF-LDA-C  ScalLDAC        ....  1.000000
   Perturbative correction              ....  0.000000
 Long-range corrected/Screened/Range-Separated Hybrid DFT is turned on
   Amount of maximum screened exact exchange              ....  0.804272
   Range separation parameter mu (erf(mu*r12)/r12)        ....  0.250000
 RI-approximation to the Coulomb term is turned on
   Number of AuxJ basis functions       .... 722
   RIJ-COSX (HFX calculated with COS-X)).... on


General Settings:
 Integral files         IntName         .... p_opt-particle-Cl
 Hartree-Fock type      HFTyp           .... RHF
 Total Charge           Charge          ....   -1
 Multiplicity           Mult            ....    1
 Number of Electrons    NEL             ....  102
 Basis Dimension        Dim             ....  450
 Nuclear Repulsion      ENuc            ....    853.8973440344 Eh

Convergence Acceleration:
 AO-DIIS                CNVDIIS         .... on
   Start iteration      DIISMaxIt       ....    12
   Startup error        DIISStart       ....  0.200000
   # of expansion vecs  DIISMaxEq       ....     5
   Bias factor          DIISBfac        ....   1.050
   Max. coefficient     DIISMaxC        ....  10.000
 MO-DIIS                CNVKDIIS        .... off
 Trust-Rad. Augm. Hess. CNVTRAH         .... auto
   Auto Start mean grad. ratio tolernc. ....  1.125000
   Auto Start start iteration           ....    50
   Auto Start num. interpolation iter.  ....    10
   Max. Number of Micro iterations      ....    24
   Max. Number of Macro iterations      .... Maxiter - #DIIS iter
   Number of Davidson start vectors     ....     2
   Converg. threshold    (grad. norm)   ....   1.000e-05
   Grad. Scal. Fac. for Micro threshold ....   0.100
   Minimum threshold for Micro iter.    ....   1.000e-02
   NR start threshold (gradient norm)   ....   1.000e-04
   Initial trust radius                 ....   0.400
   Minimum AH scaling param. (alpha)    ....   1.000
   Maximum AH scaling param. (alpha)    .... 1000.000
   Quad. conv. algorithm                .... NR
   White noise on init. David. guess    .... on
   Maximum white noise                  ....   0.010
   Pseudo random numbers                .... off
   Inactive MOs                         .... canonical
   Orbital update algorithm             .... Taylor
   Preconditioner                       .... Diag
   Full preconditioner red. dimension   ....   250
 SOSCF                  CNVSOSCF        .... on
   Start iteration      SOSCFMaxIt      ....   150
   Startup grad/error   SOSCFStart      ....  0.003300
   Hessian update       SOSCFHessUp     .... L-BFGS
 Level Shifting         CNVShift        .... on
   Level shift para.    LevelShift      ....    0.2500
   Turn off err/grad.   ShiftErr        ....    0.0010
 Zerner damping         CNVZerner       .... off
 Static damping         CNVDamp         .... on
   Fraction old density DampFac         ....    0.7000
   Max. Damping (<1)    DampMax         ....    0.9800
   Min. Damping (>=0)   DampMin         ....    0.0000
   Turn off err/grad.   DampErr         ....    0.1000

SCF Procedure:
 Maximum # iterations   MaxIter         ....   125
 SCF integral mode      SCFMode         .... Direct
   Integral package                     .... SHARK and LIBINT hybrid scheme
 Reset frequency        DirectResetFreq ....    20
 Integral Threshold     Thresh          ....  2.500e-11 Eh
 Primitive CutOff       TCut            ....  2.500e-12 Eh

Convergence Tolerance:
 Convergence Check Mode ConvCheckMode   .... Total+1el-Energy
 Convergence forced     ConvForced      .... 0
 Energy Change          TolE            ....  1.000e-08 Eh
 1-El. energy change                    ....  1.000e-05 Eh
 Orbital Gradient       TolG            ....  1.000e-05
 Orbital Rotation angle TolX            ....  1.000e-05
 DIIS Error             TolErr          ....  5.000e-07

------------------------------
INITIAL GUESS: MODEL POTENTIAL
------------------------------
Loading Hartree-Fock densities                     ... done
Calculating cut-offs                               ... done
Initializing the effective Hamiltonian             ... done
Setting up the integral package (SHARK)            ... done
Starting the Coulomb interaction                   ... done (   0.1 sec)
Making the grid                                    ... done (   0.1 sec)
Mapping shells                                     ... done
Starting the XC term evaluation                    ... done (   0.0 sec)
  promolecular density results
     # of electrons  =    100.992507153
     EX              =    -96.262024038
     EC              =     -3.491550130
     EX+EC           =    -99.753574168
Transforming the Hamiltonian                       ... done (   0.0 sec)
Diagonalizing the Hamiltonian                      ... done (   0.0 sec)
Back transforming the eigenvectors                 ... done (   0.0 sec)
Now organizing SCF variables                       ... done
                      ------------------
                      INITIAL GUESS DONE (   0.4 sec)
                      ------------------
             **** ENERGY FILE WAS UPDATED (p_opt-particle-Cl.en.tmp) ****
Finished Guess after   0.8 sec
Maximum memory used throughout the entire GUESS-calculation: 27.5 MB


           ************************************************************
           *        Program running with 36 parallel MPI-processes    *
           *              working on a common directory               *
           ************************************************************

-------------------------------------------------------------------------------------------
                                      ORCA LEAN-SCF
                              memory conserving SCF solver
-------------------------------------------------------------------------------------------

----------------------------------------D-I-I-S--------------------------------------------
Iteration    Energy (Eh)           Delta-E    RMSDP     MaxDP     DIISErr   Damp  Time(sec)
-------------------------------------------------------------------------------------------
               ***  Starting incremental Fock matrix formation  ***
    1    -997.6525391040515842     0.00e+00  1.41e-03  7.28e-02  3.46e-01  0.700   2.4
    2    -997.8373213326572113    -1.85e-01  1.24e-03  8.81e-02  1.66e-01  0.700   1.7
                               ***Turning on AO-DIIS***
    3    -997.9215889257613981    -8.43e-02  6.54e-04  4.36e-02  6.32e-02  0.700   1.6
    4    -997.9724713556988718    -5.09e-02  1.34e-03  7.50e-02  3.89e-02  0.000   1.7
    5    -998.0842538743122532    -1.12e-01  1.47e-04  1.15e-02  3.74e-03  0.000   1.7
                              *** Initializing SOSCF ***
---------------------------------------S-O-S-C-F--------------------------------------
Iteration    Energy (Eh)           Delta-E    RMSDP     MaxDP     MaxGrad    Time(sec)
--------------------------------------------------------------------------------------
    6    -998.0845296249167404    -2.76e-04  6.49e-05  3.47e-03  2.00e-03     1.6
               *** Restarting incremental Fock matrix formation ***
    7    -998.0845788371814251    -4.92e-05  4.77e-05  2.51e-03  6.53e-04     2.2
    8    -998.0845889635847925    -1.01e-05  4.31e-05  3.05e-03  2.18e-04     1.8
    9    -998.0845919389721530    -2.98e-06  1.60e-05  1.21e-03  1.01e-04     1.8
   10    -998.0845927082700655    -7.69e-07  2.48e-06  7.35e-05  2.44e-05     1.6
   11    -998.0845927186560402    -1.04e-08  1.24e-06  3.97e-05  2.27e-05     1.5
   12    -998.0845927400471282    -2.14e-08  4.91e-07  2.55e-05  4.30e-06     1.5
   13    -998.0845927408186071    -7.71e-10  2.79e-07  1.44e-05  2.56e-06     1.3
                 **** Energy Check signals convergence ****

               *****************************************************
               *                     SUCCESS                       *
               *           SCF CONVERGED AFTER  13 CYCLES          *
               *****************************************************

Recomputing exchange energy using gridx3       ... done (    2.865 sec)
Old exchange energy                            :    -30.201746916 Eh
New exchange energy                            :    -30.201752418 Eh
Exchange energy change after final integration :     -0.000005502 Eh
Total energy after final integration           :   -998.084598243 Eh
             **** ENERGY FILE WAS UPDATED (p_opt-particle-Cl.en.tmp) ****

----------------
TOTAL SCF ENERGY
----------------

Total Energy       :       -998.08459824263878 Eh          -27159.26267 eV

Components:
Nuclear Repulsion  :        853.89734403440502 Eh           23235.72801 eV
Electronic Energy  :      -1851.98193677522363 Eh          -50394.99053 eV
One Electron Energy:      -3080.29358678896506 Eh          -83819.04977 eV
Two Electron Energy:       1228.31165001374143 Eh           33424.05924 eV

Virial components:
Potential Energy   :      -1992.78205501703087 Eh          -54226.35653 eV
Kinetic Energy     :        994.69745677439198 Eh           27067.09386 eV
Virial Ratio       :          2.00340519767612

DFT components:
N(Alpha)           :       50.999796436597 electrons
N(Beta)            :       50.999796436597 electrons
N(Total)           :      101.999592873195 electrons
E(XC)              :      -71.924216852167 Eh       

---------------
SCF CONVERGENCE
---------------

  Last Energy change         ...    7.7148e-10  Tolerance :   1.0000e-08
  Last MAX-Density change    ...    1.4426e-05  Tolerance :   1.0000e-07
  Last RMS-Density change    ...    2.7899e-07  Tolerance :   5.0000e-09
  Last DIIS Error            ...    2.0047e-03  Tolerance :   5.0000e-07
  Last Orbital Gradient      ...    2.5576e-06  Tolerance :   1.0000e-05
  Last Orbital Rotation      ...    2.2445e-06  Tolerance :   1.0000e-05


----------------
ORBITAL ENERGIES
----------------

  NO   OCC          E(Eh)            E(eV) 
   0   2.0000    -101.489837     -2761.6789 
   1   2.0000     -19.102754      -519.8124 
   2   2.0000     -18.981535      -516.5138 
   3   2.0000     -18.966481      -516.1042 
   4   2.0000     -10.219246      -278.0798 
   5   2.0000     -10.217078      -278.0208 
   6   2.0000     -10.208913      -277.7987 
   7   2.0000     -10.182145      -277.0702 
   8   2.0000     -10.179356      -276.9944 
   9   2.0000     -10.178826      -276.9799 
  10   2.0000     -10.177817      -276.9525 
  11   2.0000     -10.166499      -276.6445 
  12   2.0000      -9.442951      -256.9558 
  13   2.0000      -7.194754      -195.7792 
  14   2.0000      -7.186713      -195.5604 
  15   2.0000      -7.186504      -195.5547 
  16   2.0000      -1.051224       -28.6053 
  17   2.0000      -0.934447       -25.4276 
  18   2.0000      -0.868356       -23.6292 
  19   2.0000      -0.829021       -22.5588 
  20   2.0000      -0.821600       -22.3569 
  21   2.0000      -0.773812       -21.0565 
  22   2.0000      -0.745822       -20.2948 
  23   2.0000      -0.662686       -18.0326 
  24   2.0000      -0.651922       -17.7397 
  25   2.0000      -0.569185       -15.4883 
  26   2.0000      -0.560643       -15.2559 
  27   2.0000      -0.508932       -13.8487 
  28   2.0000      -0.489645       -13.3239 
  29   2.0000      -0.473739       -12.8911 
  30   2.0000      -0.442656       -12.0453 
  31   2.0000      -0.420230       -11.4351 
  32   2.0000      -0.412909       -11.2358 
  33   2.0000      -0.404265       -11.0006 
  34   2.0000      -0.384232       -10.4555 
  35   2.0000      -0.369468       -10.0537 
  36   2.0000      -0.365429        -9.9438 
  37   2.0000      -0.355186        -9.6651 
  38   2.0000      -0.339143        -9.2285 
  39   2.0000      -0.331762        -9.0277 
  40   2.0000      -0.322890        -8.7863 
  41   2.0000      -0.315588        -8.5876 
  42   2.0000      -0.306368        -8.3367 
  43   2.0000      -0.296033        -8.0555 
  44   2.0000      -0.283092        -7.7033 
  45   2.0000      -0.266974        -7.2647 
  46   2.0000      -0.259119        -7.0510 
  47   2.0000      -0.218517        -5.9462 
  48   2.0000      -0.184378        -5.0172 
  49   2.0000      -0.144499        -3.9320 
  50   2.0000      -0.123591        -3.3631 
  51   0.0000       0.198508         5.4017 
  52   0.0000       0.222412         6.0521 
  53   0.0000       0.232465         6.3257 
  54   0.0000       0.236677         6.4403 
  55   0.0000       0.245781         6.6880 
  56   0.0000       0.268919         7.3177 
  57   0.0000       0.271317         7.3829 
  58   0.0000       0.281710         7.6657 
  59   0.0000       0.288711         7.8562 
  60   0.0000       0.295711         8.0467 
  61   0.0000       0.307678         8.3723 
*Only the first 10 virtual orbitals were printed.

                    ********************************
                    * MULLIKEN POPULATION ANALYSIS *
                    ********************************

-----------------------
MULLIKEN ATOMIC CHARGES
-----------------------
   0 C :   -0.199915
   1 C :   -0.209044
   2 H :    0.089358
   3 C :   -0.160718
   4 H :    0.076018
   5 C :   -0.184008
   6 H :    0.110626
   7 H :    0.075302
   8 C :   -0.238151
   9 H :    0.076156
  10 H :    0.103109
  11 C :    0.069346
  12 H :    0.097024
  13 H :    0.099697
  14 C :    0.041385
  15 H :    0.133974
  16 H :    0.097615
  17 O :   -0.286444
  18 H :    0.068179
  19 H :    0.156796
  20 O :   -0.648543
  21 C :    0.332669
  22 O :   -0.491200
  23 Cl:   -0.209229
Sum of atomic charges:   -1.0000000

--------------------------------
MULLIKEN REDUCED ORBITAL CHARGES
--------------------------------
  0 C s       :     3.196477  s :     3.196477
      pz      :     0.988415  p :     2.900187
      px      :     0.986083
      py      :     0.925690
      dz2     :     0.011593  d :     0.098014
      dxz     :     0.016505
      dyz     :     0.022628
      dx2y2   :     0.026548
      dxy     :     0.020739
      f0      :     0.000509  f :     0.005237
      f+1     :     0.000470
      f-1     :     0.000695
      f+2     :     0.000470
      f-2     :     0.001050
      f+3     :     0.000739
      f-3     :     0.001304

  1 C s       :     3.197836  s :     3.197836
      pz      :     0.999900  p :     2.908270
      px      :     0.942999
      py      :     0.965370
      dz2     :     0.014649  d :     0.097772
      dxz     :     0.017706
      dyz     :     0.018775
      dx2y2   :     0.019128
      dxy     :     0.027515
      f0      :     0.000555  f :     0.005167
      f+1     :     0.000818
      f-1     :     0.000326
      f+2     :     0.000422
      f-2     :     0.001081
      f+3     :     0.000733
      f-3     :     0.001233

  2 H s       :     0.889821  s :     0.889821
      pz      :     0.011005  p :     0.020821
      px      :     0.005192
      py      :     0.004624

  3 C s       :     3.165184  s :     3.165184
      pz      :     0.968853  p :     2.898418
      px      :     0.970214
      py      :     0.959351
      dz2     :     0.022994  d :     0.091898
      dxz     :     0.015243
      dyz     :     0.012977
      dx2y2   :     0.016003
      dxy     :     0.024680
      f0      :     0.000366  f :     0.005218
      f+1     :     0.001013
      f-1     :     0.000772
      f+2     :     0.000737
      f-2     :     0.001010
      f+3     :     0.000608
      f-3     :     0.000713

  4 H s       :     0.903162  s :     0.903162
      pz      :     0.006339  p :     0.020821
      px      :     0.010039
      py      :     0.004442

  5 C s       :     3.156821  s :     3.156821
      pz      :     1.007980  p :     2.933885
      px      :     0.929472
      py      :     0.996433
      dz2     :     0.015909  d :     0.088131
      dxz     :     0.023029
      dyz     :     0.008163
      dx2y2   :     0.024658
      dxy     :     0.016371
      f0      :     0.000499  f :     0.005171
      f+1     :     0.001082
      f-1     :     0.000304
      f+2     :     0.000802
      f-2     :     0.000701
      f+3     :     0.001059
      f-3     :     0.000725

  6 H s       :     0.867817  s :     0.867817
      pz      :     0.011378  p :     0.021557
      px      :     0.005687
      py      :     0.004492

  7 H s       :     0.903734  s :     0.903734
      pz      :     0.004446  p :     0.020965
      px      :     0.008195
      py      :     0.008324

  8 C s       :     3.211935  s :     3.211935
      pz      :     0.996605  p :     2.928832
      px      :     0.917507
      py      :     1.014720
      dz2     :     0.021743  d :     0.092233
      dxz     :     0.014906
      dyz     :     0.009334
      dx2y2   :     0.026146
      dxy     :     0.020103
      f0      :     0.000344  f :     0.005150
      f+1     :     0.001195
      f-1     :     0.000469
      f+2     :     0.000728
      f-2     :     0.000774
      f+3     :     0.000924
      f-3     :     0.000718

  9 H s       :     0.903017  s :     0.903017
      pz      :     0.005741  p :     0.020827
      px      :     0.007064
      py      :     0.008022

 10 H s       :     0.875217  s :     0.875217
      pz      :     0.011775  p :     0.021673
      px      :     0.004424
      py      :     0.005474

 11 C s       :     3.167479  s :     3.167479
      pz      :     0.737774  p :     2.572419
      px      :     0.931470
      py      :     0.903175
      dz2     :     0.034565  d :     0.177608
      dxz     :     0.036513
      dyz     :     0.041384
      dx2y2   :     0.034439
      dxy     :     0.030707
      f0      :     0.002962  f :     0.013149
      f+1     :     0.002066
      f-1     :     0.002444
      f+2     :     0.001477
      f-2     :     0.001275
      f+3     :     0.001738
      f-3     :     0.001187

 12 H s       :     0.881936  s :     0.881936
      pz      :     0.004661  p :     0.021040
      px      :     0.004196
      py      :     0.012183

 13 H s       :     0.879102  s :     0.879102
      pz      :     0.011572  p :     0.021201
      px      :     0.005376
      py      :     0.004254

 14 C s       :     3.095710  s :     3.095710
      pz      :     0.737949  p :     2.701357
      px      :     1.011606
      py      :     0.951801
      dz2     :     0.036251  d :     0.153660
      dxz     :     0.027591
      dyz     :     0.032264
      dx2y2   :     0.031074
      dxy     :     0.026479
      f0      :     0.001556  f :     0.007888
      f+1     :     0.001231
      f-1     :     0.001283
      f+2     :     0.001098
      f-2     :     0.000412
      f+3     :     0.001301
      f-3     :     0.001007

 15 H s       :     0.844874  s :     0.844874
      pz      :     0.012173  p :     0.021153
      px      :     0.003932
      py      :     0.005048

 16 H s       :     0.881398  s :     0.881398
      pz      :     0.004073  p :     0.020988
      px      :     0.005021
      py      :     0.011894

 17 O s       :     3.746570  s :     3.746570
      pz      :     1.361001  p :     4.498624
      px      :     1.412278
      py      :     1.725346
      dz2     :     0.012636  d :     0.038890
      dxz     :     0.008052
      dyz     :     0.005845
      dx2y2   :     0.007593
      dxy     :     0.004765
      f0      :     0.000405  f :     0.002359
      f+1     :     0.000512
      f-1     :     0.000260
      f+2     :     0.000422
      f-2     :     0.000202
      f+3     :     0.000303
      f-3     :     0.000255

 18 H s       :     0.909715  s :     0.909715
      pz      :     0.007437  p :     0.022107
      px      :     0.009428
      py      :     0.005241

 19 H s       :     0.819827  s :     0.819827
      pz      :     0.005273  p :     0.023377
      px      :     0.013668
      py      :     0.004437

 20 O s       :     3.841511  s :     3.841511
      pz      :     1.635403  p :     4.780350
      px      :     1.522245
      py      :     1.622702
      dz2     :     0.003607  d :     0.025182
      dxz     :     0.009822
      dyz     :     0.002629
      dx2y2   :     0.004530
      dxy     :     0.004594
      f0      :     0.000193  f :     0.001500
      f+1     :     0.000368
      f-1     :     0.000047
      f+2     :     0.000359
      f-2     :     0.000282
      f+3     :     0.000121
      f-3     :     0.000130

 21 C s       :     2.983157  s :     2.983157
      pz      :     0.807730  p :     2.374463
      px      :     0.766718
      py      :     0.800015
      dz2     :     0.064128  d :     0.278163
      dxz     :     0.073904
      dyz     :     0.065622
      dx2y2   :     0.029462
      dxy     :     0.045047
      f0      :     0.005364  f :     0.031548
      f+1     :     0.009810
      f-1     :     0.003415
      f+2     :     0.004086
      f-2     :     0.003487
      f+3     :     0.002028
      f-3     :     0.003358

 22 O s       :     3.774571  s :     3.774571
      pz      :     1.394325  p :     4.684836
      px      :     1.762045
      py      :     1.528465
      dz2     :     0.010790  d :     0.029812
      dxz     :     0.007792
      dyz     :     0.009081
      dx2y2   :     0.001021
      dxy     :     0.001129
      f0      :     0.000612  f :     0.001981
      f+1     :     0.000549
      f-1     :     0.000498
      f+2     :     0.000142
      f-2     :     0.000157
      f+3     :     0.000013
      f-3     :     0.000010

 23 Cls       :     5.895337  s :     5.895337
      pz      :     3.389176  p :    11.256322
      px      :     3.948284
      py      :     3.918861
      dz2     :     0.022467  d :     0.052740
      dxz     :     0.013681
      dyz     :     0.012896
      dx2y2   :     0.002026
      dxy     :     0.001670
      f0      :     0.001726  f :     0.004830
      f+1     :     0.001212
      f-1     :     0.001301
      f+2     :     0.000276
      f-2     :     0.000244
      f+3     :     0.000028
      f-3     :     0.000043



                     *******************************
                     * LOEWDIN POPULATION ANALYSIS *
                     *******************************

----------------------
LOEWDIN ATOMIC CHARGES
----------------------
   0 C :   -0.279622
   1 C :   -0.289274
   2 H :    0.133301
   3 C :   -0.274279
   4 H :    0.129314
   5 C :   -0.246140
   6 H :    0.131899
   7 H :    0.133255
   8 C :   -0.265766
   9 H :    0.130924
  10 H :    0.131619
  11 C :   -0.347248
  12 H :    0.137284
  13 H :    0.142568
  14 C :   -0.446965
  15 H :    0.151584
  16 H :    0.139114
  17 O :    0.268691
  18 H :    0.145547
  19 H :    0.161699
  20 O :   -0.254956
  21 C :   -0.754058
  22 O :   -0.056438
  23 Cl:    0.277946

-------------------------------
LOEWDIN REDUCED ORBITAL CHARGES
-------------------------------
  0 C s       :     2.783399  s :     2.783399
      pz      :     1.017702  p :     3.053282
      px      :     1.008855
      py      :     1.026725
      dz2     :     0.057960  d :     0.405268
      dxz     :     0.078756
      dyz     :     0.083544
      dx2y2   :     0.097556
      dxy     :     0.087452
      f0      :     0.003795  f :     0.037673
      f+1     :     0.003090
      f-1     :     0.006082
      f+2     :     0.005322
      f-2     :     0.005535
      f+3     :     0.005217
      f-3     :     0.008630

  1 C s       :     2.782350  s :     2.782350
      pz      :     1.029940  p :     3.066812
      px      :     1.021363
      py      :     1.015509
      dz2     :     0.066562  d :     0.402810
      dxz     :     0.073989
      dyz     :     0.079559
      dx2y2   :     0.073807
      dxy     :     0.108893
      f0      :     0.004075  f :     0.037302
      f+1     :     0.005631
      f-1     :     0.003461
      f+2     :     0.003565
      f-2     :     0.007297
      f+3     :     0.005240
      f-3     :     0.008033

  2 H s       :     0.811686  s :     0.811686
      pz      :     0.027988  p :     0.055013
      px      :     0.013540
      py      :     0.013484

  3 C s       :     2.781371  s :     2.781371
      pz      :     1.031086  p :     3.062927
      px      :     1.017132
      py      :     1.014708
      dz2     :     0.088939  d :     0.391858
      dxz     :     0.075905
      dyz     :     0.066284
      dx2y2   :     0.054763
      dxy     :     0.105966
      f0      :     0.003470  f :     0.038124
      f+1     :     0.006744
      f-1     :     0.006400
      f+2     :     0.005413
      f-2     :     0.004701
      f+3     :     0.005260
      f-3     :     0.006135

  4 H s       :     0.815847  s :     0.815847
      pz      :     0.018088  p :     0.054839
      px      :     0.023596
      py      :     0.013155

  5 C s       :     2.782535  s :     2.782535
      pz      :     1.025358  p :     3.042813
      px      :     1.008232
      py      :     1.009223
      dz2     :     0.074014  d :     0.383830
      dxz     :     0.094955
      dyz     :     0.039818
      dx2y2   :     0.103595
      dxy     :     0.071449
      f0      :     0.003842  f :     0.036962
      f+1     :     0.007543
      f-1     :     0.002950
      f+2     :     0.005893
      f-2     :     0.004339
      f+3     :     0.006900
      f-3     :     0.005494

  6 H s       :     0.810293  s :     0.810293
      pz      :     0.027864  p :     0.057808
      px      :     0.016336
      py      :     0.013607

  7 H s       :     0.811749  s :     0.811749
      pz      :     0.012746  p :     0.054996
      px      :     0.021117
      py      :     0.021134

  8 C s       :     2.784426  s :     2.784426
      pz      :     1.030265  p :     3.057215
      px      :     1.014708
      py      :     1.012242
      dz2     :     0.089429  d :     0.387267
      dxz     :     0.073877
      dyz     :     0.044178
      dx2y2   :     0.097917
      dxy     :     0.081867
      f0      :     0.002699  f :     0.036858
      f+1     :     0.007525
      f-1     :     0.003894
      f+2     :     0.004798
      f-2     :     0.005605
      f+3     :     0.007033
      f-3     :     0.005303

  9 H s       :     0.814051  s :     0.814051
      pz      :     0.017012  p :     0.055024
      px      :     0.018490
      py      :     0.019523

 10 H s       :     0.810963  s :     0.810963
      pz      :     0.029629  p :     0.057418
      px      :     0.013142
      py      :     0.014648

 11 C s       :     2.751734  s :     2.751734
      pz      :     0.867375  p :     2.854600
      px      :     0.998929
      py      :     0.988296
      dz2     :     0.156880  d :     0.651606
      dxz     :     0.126829
      dyz     :     0.138622
      dx2y2   :     0.122004
      dxy     :     0.107270
      f0      :     0.020420  f :     0.089309
      f+1     :     0.013676
      f-1     :     0.017564
      f+2     :     0.009438
      f-2     :     0.012025
      f+3     :     0.009826
      f-3     :     0.006362

 12 H s       :     0.807357  s :     0.807357
      pz      :     0.014058  p :     0.055359
      px      :     0.012444
      py      :     0.028857

 13 H s       :     0.801700  s :     0.801700
      pz      :     0.028629  p :     0.055732
      px      :     0.015075
      py      :     0.012028

 14 C s       :     2.815710  s :     2.815710
      pz      :     0.912670  p :     3.017966
      px      :     1.059039
      py      :     1.046257
      dz2     :     0.145241  d :     0.560448
      dxz     :     0.106598
      dyz     :     0.112482
      dx2y2   :     0.109426
      dxy     :     0.086700
      f0      :     0.009305  f :     0.052841
      f+1     :     0.007161
      f-1     :     0.009166
      f+2     :     0.008138
      f-2     :     0.005943
      f+3     :     0.007568
      f-3     :     0.005561

 15 H s       :     0.791028  s :     0.791028
      pz      :     0.029987  p :     0.057388
      px      :     0.012154
      py      :     0.015246

 16 H s       :     0.805379  s :     0.805379
      pz      :     0.012195  p :     0.055507
      px      :     0.013997
      py      :     0.029315

 17 O s       :     3.215220  s :     3.215220
      pz      :     1.397667  p :     4.396507
      px      :     1.423408
      py      :     1.575431
      dz2     :     0.032023  d :     0.112762
      dxz     :     0.031759
      dyz     :     0.015146
      dx2y2   :     0.020989
      dxy     :     0.012845
      f0      :     0.001384  f :     0.006820
      f+1     :     0.001473
      f-1     :     0.000801
      f+2     :     0.001158
      f-2     :     0.000513
      f+3     :     0.000796
      f-3     :     0.000694

 18 H s       :     0.798063  s :     0.798063
      pz      :     0.019377  p :     0.056390
      px      :     0.022838
      py      :     0.014175

 19 H s       :     0.777048  s :     0.777048
      pz      :     0.014851  p :     0.061253
      px      :     0.033573
      py      :     0.012829

 20 O s       :     3.503613  s :     3.503613
      pz      :     1.616724  p :     4.697356
      px      :     1.527664
      py      :     1.552969
      dz2     :     0.007857  d :     0.050026
      dxz     :     0.021076
      dyz     :     0.005175
      dx2y2   :     0.009218
      dxy     :     0.006701
      f0      :     0.000526  f :     0.003960
      f+1     :     0.001021
      f-1     :     0.000154
      f+2     :     0.001018
      f-2     :     0.000613
      f+3     :     0.000343
      f-3     :     0.000285

 21 C s       :     2.769099  s :     2.769099
      pz      :     0.990335  p :     2.675173
      px      :     0.890659
      py      :     0.794180
      dz2     :     0.275594  d :     1.112224
      dxz     :     0.337768
      dyz     :     0.191744
      dx2y2   :     0.156750
      dxy     :     0.150369
      f0      :     0.033298  f :     0.197562
      f+1     :     0.060778
      f-1     :     0.020723
      f+2     :     0.025325
      f-2     :     0.023001
      f+3     :     0.016897
      f-3     :     0.017539

 22 O s       :     3.415876  s :     3.415876
      pz      :     1.498102  p :     4.571141
      px      :     1.631586
      py      :     1.441453
      dz2     :     0.027934  d :     0.063478
      dxz     :     0.016843
      dyz     :     0.015561
      dx2y2   :     0.001476
      dxy     :     0.001664
      f0      :     0.002110  f :     0.005943
      f+1     :     0.001716
      f-1     :     0.001365
      f+2     :     0.000345
      f-2     :     0.000369
      f+3     :     0.000018
      f-3     :     0.000020

 23 Cls       :     5.571329  s :     5.571329
      pz      :     3.361788  p :    11.049107
      px      :     3.859204
      py      :     3.828115
      dz2     :     0.038670  d :     0.091305
      dxz     :     0.023755
      dyz     :     0.023253
      dx2y2   :     0.003080
      dxy     :     0.002548
      f0      :     0.003688  f :     0.010312
      f+1     :     0.002655
      f-1     :     0.002754
      f+2     :     0.000572
      f-2     :     0.000528
      f+3     :     0.000043
      f-3     :     0.000071



                      *****************************
                      * MAYER POPULATION ANALYSIS *
                      *****************************

  NA   - Mulliken gross atomic population
  ZA   - Total nuclear charge
  QA   - Mulliken gross atomic charge
  VA   - Mayer's total valence
  BVA  - Mayer's bonded valence
  FA   - Mayer's free valence

  ATOM       NA         ZA         QA         VA         BVA        FA
  0 C      6.1999     6.0000    -0.1999     3.9398     3.9398     0.0000
  1 C      6.2090     6.0000    -0.2090     3.9136     3.9136     0.0000
  2 H      0.9106     1.0000     0.0894     0.9715     0.9715     0.0000
  3 C      6.1607     6.0000    -0.1607     3.8744     3.8744     0.0000
  4 H      0.9240     1.0000     0.0760     0.9666     0.9666     0.0000
  5 C      6.1840     6.0000    -0.1840     3.8744     3.8744    -0.0000
  6 H      0.8894     1.0000     0.1106     0.9933     0.9933     0.0000
  7 H      0.9247     1.0000     0.0753     0.9665     0.9665     0.0000
  8 C      6.2382     6.0000    -0.2382     3.9608     3.9608     0.0000
  9 H      0.9238     1.0000     0.0762     0.9671     0.9671     0.0000
 10 H      0.8969     1.0000     0.1031     0.9924     0.9924     0.0000
 11 C      5.9307     6.0000     0.0693     3.9789     3.9789     0.0000
 12 H      0.9030     1.0000     0.0970     0.9712     0.9712     0.0000
 13 H      0.9003     1.0000     0.0997     0.9909     0.9909    -0.0000
 14 C      5.9586     6.0000     0.0414     3.8998     3.8998     0.0000
 15 H      0.8660     1.0000     0.1340     0.9798     0.9798     0.0000
 16 H      0.9024     1.0000     0.0976     0.9712     0.9712     0.0000
 17 O      8.2864     8.0000    -0.2864     1.9939     1.9939    -0.0000
 18 H      0.9318     1.0000     0.0682     1.0355     1.0355     0.0000
 19 H      0.8432     1.0000     0.1568     1.0248     1.0248     0.0000
 20 O      8.6485     8.0000    -0.6485     1.7721     1.7721    -0.0000
 21 C      5.6673     6.0000     0.3327     4.7003     4.7003    -0.0000
 22 O      8.4912     8.0000    -0.4912     1.9889     1.9889    -0.0000
 23 Cl    17.2092    17.0000    -0.2092     1.1086     1.1086     0.0000

  Mayer bond orders larger than 0.100000
B(  0-C ,  1-C ) :   0.9918 B(  0-C ,  2-H ) :   0.9776 B(  0-C ,  3-C ) :   0.9751 
B(  0-C ,  4-H ) :   0.9729 B(  1-C ,  8-C ) :   0.9669 B(  1-C ,  9-H ) :   0.9730 
B(  1-C , 10-H ) :   0.9699 B(  3-C ,  5-C ) :   0.9451 B(  3-C ,  6-H ) :   0.9617 
B(  3-C ,  7-H ) :   0.9737 B(  5-C , 11-C ) :   0.9485 B(  5-C , 12-H ) :   0.9832 
B(  5-C , 13-H ) :   0.9631 B(  8-C , 14-C ) :   0.9721 B(  8-C , 15-H ) :   0.9562 
B(  8-C , 16-H ) :   0.9779 B( 11-C , 14-C ) :   0.9898 B( 11-C , 17-O ) :   0.9866 
B( 11-C , 18-H ) :   0.9619 B( 14-C , 19-H ) :   0.9545 B( 14-C , 23-Cl) :   0.9275 
B( 17-O , 21-C ) :   1.0034 B( 20-O , 21-C ) :   1.6571 B( 21-C , 22-O ) :   1.9961 


-------
TIMINGS
-------

Total SCF time: 0 days 0 hours 0 min 26 sec 

Total time                  ....      26.412 sec
Sum of individual times     ....      26.004 sec  ( 98.5%)

SCF preparation             ....       0.513 sec  (  1.9%)
Fock matrix formation       ....      21.503 sec  ( 81.4%)
  Startup                   ....       0.446 sec  (  2.1% of F)
  Split-RI-J                ....       1.940 sec  (  9.0% of F)
  Chain of spheres X        ....      15.328 sec  ( 71.3% of F)
  XC integration            ....       2.930 sec  ( 13.6% of F)
    XC Preparation          ....       0.000 sec  (  0.0% of XC)
    Basis function eval.    ....       0.428 sec  ( 14.6% of XC)
    Density eval.           ....       0.344 sec  ( 11.8% of XC)
    XC-Functional eval.     ....       0.058 sec  (  2.0% of XC)
    XC-Potential eval.      ....       0.405 sec  ( 13.8% of XC)
Diagonalization             ....       0.000 sec  (  0.0%)
Density matrix formation    ....       0.835 sec  (  3.2%)
Total Energy calculation    ....       0.541 sec  (  2.0%)
Population analysis         ....       0.201 sec  (  0.8%)
Orbital Transformation      ....       0.211 sec  (  0.8%)
Orbital Orthonormalization  ....       0.000 sec  (  0.0%)
DIIS solution               ....       1.437 sec  (  5.4%)
SOSCF solution              ....       0.762 sec  (  2.9%)
Finished LeanSCF after  26.5 sec

Maximum memory used throughout the entire LEANSCF-calculation: 51.3 MB


           ************************************************************
           *        Program running with 36 parallel MPI-processes    *
           *              working on a common directory               *
           ************************************************************

------------------------------------------------------------------------------
                         ORCA PROPERTY INTEGRAL CALCULATIONS
------------------------------------------------------------------------------

GBWName                                   ... p_opt-particle-Cl.gbw
Number of atoms                           ...     24
Number of basis functions                 ...    450
Max core memory                           ...   1024 MB

Dipole integrals                          ... YES
Quadrupole integrals                      ...  NO
Linear momentum integrals                 ...  NO
Angular momentum integrals                ...  NO
Higher moments length integrals           ...  NO
Higher moments velocity integrals         ...  NO
Kinetic energy integrals                  ...  NO
GIAO right hand sides                     ...  NO
GIAO dipole derivative integrals          ...  NO
SOC integrals                             ...  NO
EPR diamagnetic integrals (GIAO)          ...  NO
EPR gauge integrals                       ...  NO
Field gradient integrals                  ...  NO (   0 nuclei)
Spin-dipole/Fermi contact integrals       ...  NO (   0 nuclei)
Contact density integrals                 ...  NO (   0 nuclei)
Nucleus-orbit integrals                   ...  NO (   0 nuclei)
Geometric perturbations                   ...  NO (  24 nuclei)

Choice of electric origin   ... Center of mass
Position of electric origin ... (  0.5757,  0.4780, -1.1272) 
Choice of magnetic origin   ... GIAO
Position of magnetic origin ... (  0.0000,  0.0000,  0.0000) 

Calculating integrals                     ... Electric Dipole (Length)     done (  0.1 sec)

Property integrals calculated in   0.1 sec

Maximum memory used throughout the entire PROPINT-calculation: 26.8 MB


-------------------------------------------------------------------------------
                          DFT DISPERSION CORRECTION                            
                                                                               
                              DFTD3 V3.1  Rev 1                                
                              USING zero damping                               
-------------------------------------------------------------------------------
The omegaB97X-D3 functional is recognized. Fit by Chai et al.
Active option DFTDOPT                   ...         3   

molecular C6(AA) [au] = 5727.587686 


            DFT-D V3
 parameters
 s6 scaling factor         :     1.0000 
 rs6 scaling factor        :     1.2810 
 s8 scaling factor         :     1.0000 
 rs8 scaling factor        :     1.0940 
 Damping factor alpha6     :    14.0000 
 Damping factor alpha8     :    16.0000 
 ad hoc parameters k1-k3   :    16.0000     1.3333    -4.0000 

 Edisp/kcal,au: -7.025162136361  -0.011195307286 
 E6   /kcal   :  -2.872651532 
 E8   /kcal   :  -4.152510604 
 % E8         :  59.109107001 

-------------------------   ----------------
Dispersion correction           -0.011195307
-------------------------   ----------------


-------------------------   --------------------
FINAL SINGLE POINT ENERGY      -998.095793549925
-------------------------   --------------------



[...]
     68      -0.000052  -0.000067   0.000056  -0.000028  -0.000012  -0.000108
     69      -0.000046   0.000122  -0.000130   0.000205  -0.000106   0.000231
     70      -0.000054   0.000048   0.000142   0.000066   0.000060  -0.000101
     71      -0.000147   0.000089  -0.000122  -0.000102   0.000165  -0.000014


-----------
IR SPECTRUM
-----------

 Mode   freq       eps      Int      T**2         TX        TY        TZ
       cm**-1   L/(mol*cm) km/mol    a.u.
----------------------------------------------------------------------------
  6:     32.38   0.000618    3.12  0.005956  (-0.063060 -0.029590 -0.033221)
  7:     64.21   0.000022    0.11  0.000108  ( 0.008230  0.005932  0.002143)
  8:     84.16   0.000986    4.98  0.003654  (-0.003479 -0.058504  0.014808)
  9:    123.92   0.000112    0.56  0.000282  (-0.006807  0.007125 -0.013580)
 10:    178.59   0.000173    0.88  0.000303  (-0.010952  0.007935  0.010963)
 11:    217.59   0.001111    5.62  0.001594  (-0.021290 -0.026841  0.020500)
 12:    229.27   0.000624    3.15  0.000849  ( 0.023428  0.016844 -0.004107)
 13:    277.80   0.000149    0.75  0.000167  ( 0.001324  0.012797 -0.001358)
 14:    301.53   0.000330    1.67  0.000342  ( 0.002846  0.018263 -0.000344)
 15:    344.87   0.000102    0.52  0.000092  ( 0.007131 -0.004932  0.004132)
 16:    366.79   0.000352    1.78  0.000300  ( 0.014289 -0.009369  0.002809)
 17:    379.18   0.000267    1.35  0.000220  ( 0.006492  0.010102  0.008714)
 18:    440.32   0.000690    3.49  0.000489  ( 0.000859 -0.000299  0.022098)
 19:    488.83   0.000106    0.53  0.000067  ( 0.001466 -0.001271 -0.007980)
 20:    605.76   0.000177    0.90  0.000091  ( 0.005064  0.001851 -0.007892)
 21:    631.31   0.002940   14.86  0.001453  ( 0.004196 -0.017922  0.033383)
 22:    700.47   0.000278    1.40  0.000124  ( 0.009953 -0.003256  0.003737)
 23:    737.25   0.002632   13.30  0.001114  ( 0.017029 -0.013312  0.025435)
 24:    771.07   0.004553   23.01  0.001843  (-0.030241  0.010794 -0.028489)
 25:    826.83   0.061064  308.59  0.023047  (-0.129908 -0.020263  0.075894)
 26:    834.73   0.010035   50.71  0.003752  (-0.038346 -0.045230  0.015340)
 27:    839.31   0.003074   15.53  0.001143  (-0.026139 -0.021429  0.000622)
 28:    848.07   0.010269   51.90  0.003779  ( 0.050847 -0.003168 -0.034400)
 29:    883.68   0.012084   61.07  0.004267  ( 0.064766 -0.002499 -0.008144)
 30:    906.78   0.000325    1.64  0.000112  ( 0.005579  0.001763 -0.008809)
 31:    971.80   0.001565    7.91  0.000503  ( 0.013796 -0.009626  0.014817)
 32:   1001.21   0.007926   40.06  0.002470  ( 0.025275  0.022724 -0.036266)
 33:   1043.41   0.000199    1.00  0.000059  (-0.004989 -0.000965 -0.005794)
 34:   1049.98   0.000192    0.97  0.000057  (-0.005593 -0.000296  0.005072)
 35:   1091.32   0.024201  122.30  0.006920  ( 0.063034  0.013554 -0.052568)
 36:   1119.58   0.008068   40.77  0.002249  ( 0.024803  0.022339 -0.033682)
 37:   1147.30   0.001286    6.50  0.000350  ( 0.013354 -0.004421 -0.012323)
 38:   1160.66   0.008599   43.46  0.002312  ( 0.040531  0.007519 -0.024755)
 39:   1227.18   0.000128    0.65  0.000033  (-0.005151  0.002187  0.001134)
 40:   1230.07   0.002822   14.26  0.000716  (-0.010412 -0.013709  0.020484)
 41:   1245.51   0.001163    5.88  0.000291  ( 0.009706  0.010351 -0.009483)
 42:   1279.42   0.000484    2.45  0.000118  ( 0.003532 -0.004986  0.008984)
 43:   1299.31   0.009473   47.87  0.002275  (-0.039588 -0.007532  0.025519)
 44:   1311.04   0.022687  114.65  0.005400  (-0.070611 -0.006454  0.019303)
 45:   1318.91   0.012839   64.88  0.003038  ( 0.055113 -0.000595 -0.000035)
 46:   1353.74   0.012123   61.26  0.002795  ( 0.047736  0.007050 -0.021590)
 47:   1354.46   0.006944   35.09  0.001600  ( 0.032064  0.016310 -0.017485)
 48:   1376.87   0.000513    2.59  0.000116  (-0.006081 -0.004624  0.007612)
 49:   1394.10   0.000599    3.03  0.000134  ( 0.006083  0.003457 -0.009231)
 50:   1403.36   0.000246    1.24  0.000055  (-0.005880 -0.001690  0.004162)
 51:   1411.18   0.000476    2.41  0.000105  (-0.005290  0.005372 -0.006958)
 52:   1411.32   0.000014    0.07  0.000003  (-0.001645  0.000558  0.000341)
 53:   1427.06   0.000871    4.40  0.000190  ( 0.007971 -0.006303 -0.009338)
 54:   1484.64   0.000830    4.20  0.000175  ( 0.006028 -0.007012 -0.009437)
 55:   1485.31   0.000250    1.26  0.000052  (-0.001160  0.007124 -0.000621)
 56:   1490.91   0.001722    8.70  0.000360  (-0.000106 -0.017945 -0.006199)
 57:   1500.09   0.002225   11.24  0.000463  (-0.007716 -0.002365  0.019942)
 58:   1505.07   0.001670    8.44  0.000346  ( 0.016637 -0.001025  0.008273)
 59:   1832.30   0.138299  698.91  0.023554  ( 0.009759 -0.043480  0.146862)
 60:   3021.45   0.004979   25.16  0.000514  ( 0.020526 -0.002846  0.009211)
 61:   3041.73   0.004776   24.14  0.000490  (-0.001559  0.019562  0.010241)
 62:   3043.41   0.007834   39.59  0.000803  (-0.027736 -0.002577  0.005232)
 63:   3053.51   0.010767   54.41  0.001100  (-0.005723  0.022608  0.023591)
 64:   3058.70   0.010076   50.92  0.001028  ( 0.004993  0.030123 -0.009779)
 65:   3063.68   0.014086   71.19  0.001435  (-0.035823 -0.005075  0.011215)
 66:   3081.76   0.001308    6.61  0.000132  ( 0.001817 -0.010329  0.004739)
 67:   3088.84   0.006939   35.07  0.000701  (-0.001330  0.021611  0.015239)
 68:   3097.49   0.001292    6.53  0.000130  (-0.007729  0.008325  0.001069)
 69:   3099.90   0.009769   49.37  0.000983  ( 0.008579 -0.026783  0.013876)
 70:   3107.02   0.012331   62.32  0.001238  (-0.012566 -0.007178 -0.032079)
 71:   3159.92   0.000375    1.90  0.000037  ( 0.003234  0.005035  0.001124)

* The epsilon (eps) is given for a Dirac delta lineshape.
** The dipole moment derivative (T) already includes vibrational overlap.

The first frequency considered to be a vibration is 6
The total number of vibrations considered is 66


--------------------------
THERMOCHEMISTRY AT 298.15K
--------------------------

Temperature         ...   298.15 K
Pressure            ...     1.00 atm
Total Mass          ...   191.63 AMU
Quasi RRHO          ...     True
Cut-Off Frequency   ...     1.00 cm^-1

Throughout the following assumptions are being made:
  (1) The electronic state is orbitally nondegenerate
  (2) There are no thermally accessible electronically excited states
  (3) Hindered rotations indicated by low frequency modes are not
      treated as such but are treated as vibrations and this may
      cause some error
  (4) All equations used are the standard statistical mechanics
      equations for an ideal gas
  (5) All vibrations are strictly harmonic

freq.      32.38  E(vib)   ...       0.55 
freq.      64.21  E(vib)   ...       0.51 
freq.      84.16  E(vib)   ...       0.48 
freq.     123.92  E(vib)   ...       0.43 
freq.     178.59  E(vib)   ...       0.37 
freq.     217.59  E(vib)   ...       0.33 
freq.     229.27  E(vib)   ...       0.32 
freq.     277.80  E(vib)   ...       0.28 
freq.     301.53  E(vib)   ...       0.26 
freq.     344.87  E(vib)   ...       0.23 
freq.     366.79  E(vib)   ...       0.22 
freq.     379.18  E(vib)   ...       0.21 
freq.     440.32  E(vib)   ...       0.17 
freq.     488.83  E(vib)   ...       0.15 
freq.     605.76  E(vib)   ...       0.10 
freq.     631.31  E(vib)   ...       0.09 
freq.     700.47  E(vib)   ...       0.07 
freq.     737.25  E(vib)   ...       0.06 
freq.     771.07  E(vib)   ...       0.05 
freq.     826.83  E(vib)   ...       0.04 
freq.     834.73  E(vib)   ...       0.04 
freq.     839.31  E(vib)   ...       0.04 
freq.     848.07  E(vib)   ...       0.04 
freq.     883.68  E(vib)   ...       0.04 
freq.     906.78  E(vib)   ...       0.03 
freq.     971.80  E(vib)   ...       0.03 
freq.    1001.21  E(vib)   ...       0.02 
freq.    1043.41  E(vib)   ...       0.02 
freq.    1049.98  E(vib)   ...       0.02 
freq.    1091.32  E(vib)   ...       0.02 
freq.    1119.58  E(vib)   ...       0.01 
freq.    1147.30  E(vib)   ...       0.01 
freq.    1160.66  E(vib)   ...       0.01 
freq.    1227.18  E(vib)   ...       0.01 
freq.    1230.07  E(vib)   ...       0.01 
freq.    1245.51  E(vib)   ...       0.01 
freq.    1279.42  E(vib)   ...       0.01 
freq.    1299.31  E(vib)   ...       0.01 
freq.    1311.04  E(vib)   ...       0.01 
freq.    1318.91  E(vib)   ...       0.01 
freq.    1353.74  E(vib)   ...       0.01 
freq.    1354.46  E(vib)   ...       0.01 
freq.    1376.87  E(vib)   ...       0.01 
freq.    1394.10  E(vib)   ...       0.00 
freq.    1403.36  E(vib)   ...       0.00 
freq.    1411.18  E(vib)   ...       0.00 
freq.    1411.32  E(vib)   ...       0.00 
freq.    1427.06  E(vib)   ...       0.00 
freq.    1484.64  E(vib)   ...       0.00 
freq.    1485.31  E(vib)   ...       0.00 
freq.    1490.91  E(vib)   ...       0.00 
freq.    1500.09  E(vib)   ...       0.00 
freq.    1505.07  E(vib)   ...       0.00 
freq.    1832.30  E(vib)   ...       0.00 
freq.    3021.45  E(vib)   ...       0.00 
freq.    3041.73  E(vib)   ...       0.00 
freq.    3043.41  E(vib)   ...       0.00 
freq.    3053.51  E(vib)   ...       0.00 
freq.    3058.70  E(vib)   ...       0.00 
freq.    3063.68  E(vib)   ...       0.00 
freq.    3081.76  E(vib)   ...       0.00 
freq.    3088.84  E(vib)   ...       0.00 
freq.    3097.49  E(vib)   ...       0.00 
freq.    3099.90  E(vib)   ...       0.00 
freq.    3107.02  E(vib)   ...       0.00 
freq.    3159.92  E(vib)   ...       0.00 

------------
INNER ENERGY
------------

The inner energy is: U= E(el) + E(ZPE) + E(vib) + E(rot) + E(trans)
    E(el)   - is the total energy from the electronic structure calculation
              = E(kin-el) + E(nuc-el) + E(el-el) + E(nuc-nuc)
    E(ZPE)  - the the zero temperature vibrational energy from the frequency calculation
    E(vib)  - the the finite temperature correction to E(ZPE) due to population
              of excited vibrational states
    E(rot)  - is the rotational thermal energy
    E(trans)- is the translational thermal energy

Summary of contributions to the inner energy U:
Electronic energy                ...   -998.12512598 Eh
Zero point energy                ...      0.19810766 Eh     124.31 kcal/mol
Thermal vibrational correction   ...      0.00857738 Eh       5.38 kcal/mol
Thermal rotational correction    ...      0.00141627 Eh       0.89 kcal/mol
Thermal translational correction ...      0.00141627 Eh       0.89 kcal/mol
-----------------------------------------------------------------------
Total thermal energy                   -997.91560840 Eh


Summary of corrections to the electronic energy:
(perhaps to be used in another calculation)
Total thermal correction                  0.01140992 Eh       7.16 kcal/mol
Non-thermal (ZPE) correction              0.19810766 Eh     124.31 kcal/mol
-----------------------------------------------------------------------
Total correction                          0.20951758 Eh     131.47 kcal/mol


--------
ENTHALPY
--------

The enthalpy is H = U + kB*T
                kB is Boltzmann's constant
Total thermal energy              ...   -997.91560840 Eh 
Thermal Enthalpy correction       ...      0.00094421 Eh       0.59 kcal/mol
-----------------------------------------------------------------------
Total Enthalpy                    ...   -997.91466419 Eh


Note: Only C1 symmetry has been detected, increase convergence thresholds 
      if your molecule has a higher symmetry. Symmetry factor of 1.0 is   
      used for the rotational entropy correction. 
 

Note: Rotational entropy computed according to Herzberg 
Infrared and Raman Spectra, Chapter V,1, Van Nostrand Reinhold, 1945 
Point Group:  C1, Symmetry Number:   1  
Rotational constants in cm-1:     0.041059     0.018591     0.015863 

Vibrational entropy computed according to the QRRHO of S. Grimme
Chem.Eur.J. 2012 18 9955 using a reference frequency of 100.0 cm-1


-------
ENTROPY
-------

The entropy contributions are T*S = T*(S(el)+S(vib)+S(rot)+S(trans))
     S(el)   - electronic entropy
     S(vib)  - vibrational entropy
     S(rot)  - rotational entropy
     S(trans)- translational entropy
The entropies will be listed as multiplied by the temperature to get
units of energy

Electronic entropy                ...      0.00000000 Eh      0.00 kcal/mol
Vibrational entropy               ...      0.01487809 Eh      9.34 kcal/mol
Rotational entropy                ...      0.01485560 Eh      9.32 kcal/mol
Translational entropy             ...      0.01979241 Eh     12.42 kcal/mol
-----------------------------------------------------------------------
Final entropy term                ...      0.04952610 Eh     31.08 kcal/mol

In case the symmetry of your molecule has not been determined correctly
or in case you have a reason to use a different symmetry number we print 
out the resulting rotational entropy values for sn=1,12:

 non-linear molecules -----------------------------------
|  sn= 1 | S(rot)=       0.01485560 Eh      9.32 kcal/mol|
|  sn= 2 | S(rot)=       0.01420114 Eh      8.91 kcal/mol|
|  sn= 3 | S(rot)=       0.01381831 Eh      8.67 kcal/mol|
|  sn= 4 | S(rot)=       0.01354669 Eh      8.50 kcal/mol|
|  sn= 5 | S(rot)=       0.01333600 Eh      8.37 kcal/mol|
|  sn= 6 | S(rot)=       0.01316386 Eh      8.26 kcal/mol|
|  sn= 7 | S(rot)=       0.01301831 Eh      8.17 kcal/mol|
|  sn= 8 | S(rot)=       0.01289223 Eh      8.09 kcal/mol|
|  sn= 9 | S(rot)=       0.01278102 Eh      8.02 kcal/mol|
|  sn=10 | S(rot)=       0.01268154 Eh      7.96 kcal/mol|
|  sn=11 | S(rot)=       0.01259155 Eh      7.90 kcal/mol|
|  sn=12 | S(rot)=       0.01250940 Eh      7.85 kcal/mol|
 linear molecules ---------------------------------------
|  Dinfh | S(rot)=       0.00923825 Eh      5.80 kcal/mol|
|  Cinfv | S(rot)=       0.00989270 Eh      6.21 kcal/mol|
 --------------------------------------------------------


-------------------
GIBBS FREE ENERGY
-------------------

The Gibbs free energy is G = H - T*S

Total enthalpy                    ...   -997.91466419 Eh 
Total entropy correction          ...     -0.04952610 Eh    -31.08 kcal/mol
-----------------------------------------------------------------------
Final Gibbs free energy         ...   -997.96419029 Eh

For completeness - the Gibbs free energy minus the electronic energy
G-E(el)                           ...      0.16093569 Eh    100.99 kcal/mol


Maximum memory used throughout the entire PROP-calculation: 182.0 MB

--------------------------------
SUGGESTED CITATIONS FOR THIS RUN
--------------------------------

Below you find a list of papers that are relevant to this ORCA run
We neither can nor want to force you to cite these papers, but we appreciate if you do
You receive ORCA, which is the product of decades of hard work by many enthusiastic individuals, for free
The only thing we kindly ask in return is that you cite our papers,
We deeply appreciate it, if you show your appreciation for ORCA by not just citing the generic ORCA reference.

Please note that relegating all ORCA citations to the supporting information does *not* help us.
SI sections are not indexed - citations you put there will not count into any citation statistics
But we need these citations in order to attract the funding resources that allow us to do what we are doing

Therefore, if you are a happy ORCA user, please consider citing a few of the papers listed below in the main body of your paper

In addition to the list printed below, the program has created the file p_opt-particle-Cl.bibtex that contains the list in bibtex format
You can import this file easily into all common literature databanks and citation aid programs


List of essential papers. We consider these as the minimum necessary citations

  1. Neese,F.
     Software update: the ORCA program system, version 5.0
     WIRES Comput. Molec. Sci., 2022 12(1)e1606
     doi.org/10.1002/wcms.1606

List of papers to cite with high priority. The work reported in these papers was absolutely
necessary for this run to complete.
Our perspective: the developers of density functionals and basis sets usually get cited in chemistry papers
Good! But without the algorithms to do something with them, the functionals or basis sets would not do anything.
Hence, in our opinion, the algorithm design and method developments papers are equally worthy of getting cited

  1. Neese,F.
     An improvement of the resolution of the identity approximation for the formation of the Coulomb matrix
     J. Comp. Chem., 2003 24(14)1740-1747
     doi.org/10.1002/jcc.10318
  2. Neese,F.; Wennmohs,F.; Hansen,A.; Becker,U.
     Efficient, approximate and parallel Hartree-Fock and hybrid DFT calculations. A 'chain-of-spheres' algorithm for the Hartree-Fock exchange
     Chem. Phys., 2009 356(1-3)98-109
     doi.org/10.1016/j.chemphys.2008.10.036
  3. Bykov,D.; Petrenko,T.; Izsak,R.; Kossmann,S.; Becker,U.; Valeev,E.; Neese,F.
     Efficient implementation of the analytic second derivatives of Hartree-Fock and hybrid DFT energies: a detailed analysis of different approximations
     Molec. Phys., 2015 113 1961-1977
     doi.org/10.1080/00268976.2015.1025114
  4. Helmich-Paris,B.; de Souza,B.; Neese,F.; Izsák,R.
     An improved chain of spheres for exchange algorithm
     J. Chem. Phys., 2021 155 104109
     doi.org/doi: 10.1063/5.0058766.
  5. Neese,F.
     The SHARK Integral Generation and Digestion System
     J. Comp. Chem., 2022  1-16
     doi.org/10.1002/jcc.26942
  6. Grimme,S.; Antony,J.; Ehrlich,S.; Krieg,H.
     A consistent and accurate ab initio parametrization of density functional dispersion correction (DFT-D) for the 94 elements H-Pu
     J. Chem. Phys., 2010 132 154104-XXXX
     doi.org/10.1063/1.3382344

List of suggested additional citations. These are papers that are important in the 'surrounding' of 
of this run, or papers that preceded the highly important papers. If you like your results we are grateful for a citation.

  1. Izsak,R.; Neese,F.
     An overlap fitted chain of spheres exchange method
     J. Chem. Phys., 2011 135 144105
     doi.org/10.1063/1.3646921
  2. Izsak,R.; Hansen,A.; Neese,F.
     The resolution of identity and chain of spheres approximations for the LPNO-CCSD singles Fock term
     Molec. Phys., 2012 110 2413-2417
     doi.org/10.1080/00268976.2012.687466
  3. Neese,F.
     The ORCA program system
     WIRES Comput. Molec. Sci., 2012 2(1)73-78
     doi.org/10.1002/wcms.81
  4. Izsak,R.; Neese,F.; Klopper,W.
     Robust fitting techniques in the chain of spheres approximation to the Fock exchange: The role of the complementary space
     J. Chem. Phys., 2013 139 
     doi.org/10.1063/1.4819264
  5. Neese,F.
     Software update: the ORCA program system, version 4.0
     WIRES Comput. Molec. Sci., 2018 8(1)1-6
     doi.org/10.1002/wcms.1327
  6. Neese,F.; Wennmohs,F.; Becker,U.; Riplinger,C.
     The ORCA quantum chemistry program package
     J. Chem. Phys., 2020 152 Art. No. L224108
     doi.org/10.1063/5.0004608

List of optional additional citations

  1. Neese,F.
     Approximate second-order SCF convergence for spin unrestricted wavefunctions
     Chem. Phys. Lett., 2000 325(1-3)93-98
     doi.org/10.1016/s0009-2614(00)00662-x

Timings for individual modules:

Sum of individual times          ...      525.130 sec (=   8.752 min)
Startup calculation              ...       19.668 sec (=   0.328 min)   3.7 %
SCF iterations                   ...      217.957 sec (=   3.633 min)  41.5 %
Property integrals               ...       47.014 sec (=   0.784 min)   9.0 %
SCF Response                     ...       87.937 sec (=   1.466 min)  16.7 %
Property calculations            ...       83.133 sec (=   1.386 min)  15.8 %
SCF Gradient evaluation          ...       69.292 sec (=   1.155 min)  13.2 %
Geometry relaxation              ...        0.129 sec (=   0.002 min)   0.0 %
                             ****ORCA TERMINATED NORMALLY****
TOTAL RUN TIME: 0 days 0 hours 8 minutes 53 seconds 341 msec
